<?xml version="1.0" encoding="UTF-8"?>

<!-- generated on 2024-11-30 17:15:39 by Eclipse SUMO GUI Version 1.20.0
<configuration xmlns:xsi="http://www.w3.org/2001/XMLSchema-instance" xsi:noNamespaceSchemaLocation="http://sumo.dlr.de/xsd/sumoConfiguration.xsd">

    <input>
        <net-file value="intersection.net.xml"/>
        <route-files value="intersection.rou.xml"/>
        <additional-files value="intersection.add.xml, vtypes.xml"/>
    </input>

    <output>
        <summary-output value="summary.xml"/>
        <tripinfo-output value="tripinfo.xml"/>
    </output>

    <time>
        <begin value="0"/>
        <end value="3600"/>
        <step-length value="0.1"/>
    </time>

    <processing>
        <collision.action value="warn"/>
        <collision.check-junctions value="true"/>
    </processing>

    <traci_server>
        <remote-port value="49234"/>
    </traci_server>

    <random_number>
        <random value="true"/>
    </random_number>

</configuration>
-->

<tripinfos xmlns:xsi="http://www.w3.org/2001/XMLSchema-instance" xsi:noNamespaceSchemaLocation="http://sumo.dlr.de/xsd/tripinfo_file.xsd">
    <tripinfo id="f4_pat.0" depart="0.60" departLane="4i_0" departPos="4.10" departSpeed="0.00" departDelay="0.00" arrival="12.90" arrivalLane="3o_0" arrivalPos="42.80" arrivalSpeed="9.73" duration="12.30" routeLength="95.90" waitingTime="0.00" waitingCount="0" stopTime="0.00" timeLoss="2.40" rerouteNo="0" devices="tripinfo_f4_pat.0 routing_f4_pat.0" vType="patient" speedFactor="0.88" vaporized=""/>
    <tripinfo id="f3_agg.0" depart="2.30" departLane="3i_0" departPos="4.10" departSpeed="0.00" departDelay="0.00" arrival="13.70" arrivalLane="4o_0" arrivalPos="42.80" arrivalSpeed="11.10" duration="11.40" routeLength="95.90" waitingTime="0.00" waitingCount="0" stopTime="0.00" timeLoss="2.75" rerouteNo="0" devices="tripinfo_f3_agg.0 routing_f3_agg.0" vType="aggressive" speedFactor="1.11" vaporized=""/>
    <tripinfo id="f2_pat.0" depart="1.90" departLane="2i_0" departPos="4.10" departSpeed="0.00" departDelay="0.00" arrival="17.60" arrivalLane="1o_0" arrivalPos="42.80" arrivalSpeed="11.08" duration="15.70" routeLength="95.90" waitingTime="0.10" waitingCount="1" stopTime="0.00" timeLoss="6.98" rerouteNo="0" devices="tripinfo_f2_pat.0 routing_f2_pat.0" vType="patient" speedFactor="1.00" vaporized=""/>
    <tripinfo id="f3_agg.1" depart="8.40" departLane="3i_0" departPos="4.10" departSpeed="0.00" departDelay="0.00" arrival="19.80" arrivalLane="4o_0" arrivalPos="42.80" arrivalSpeed="11.10" duration="11.40" routeLength="95.90" waitingTime="0.00" waitingCount="0" stopTime="0.00" timeLoss="2.72" rerouteNo="0" devices="tripinfo_f3_agg.1 routing_f3_agg.1" vType="aggressive" speedFactor="1.01" vaporized=""/>
    <tripinfo id="f2_pat.1" depart="14.30" departLane="2i_0" departPos="4.10" departSpeed="0.00" departDelay="0.00" arrival="26.50" arrivalLane="1o_0" arrivalPos="42.80" arrivalSpeed="10.62" duration="12.20" routeLength="95.90" waitingTime="0.00" waitingCount="0" stopTime="0.00" timeLoss="3.20" rerouteNo="0" devices="tripinfo_f2_pat.1 routing_f2_pat.1" vType="patient" speedFactor="0.96" vaporized=""/>
</tripinfos>
